LAMMPS data file via write_data, version 29 Oct 2020, timestep = 10000

108 atoms
1 atom types

0.0 10.9026 xlo xhi
0.0 10.9026 ylo yhi
0.0 10.9026 zlo zhi

Masses

1 63.546

Atoms # atomic

8 1 3.684410537535448 1.7285803564223978 1.8216267131349257 0 0 0
15 1 1.855799620368978 3.58685361540633 1.8658382426672893 0 0 0
38 1 1.705817218078718 1.7063147774037226 3.4670512335421195 0 0 0
53 1 3.544270339869786 3.6135740830690164 3.7163619725992008 0 0 0
44 1 3.5164598343827667 1.7630764733452133 5.372682914358216 0 0 0
19 1 5.367803081538759 3.6851635044914084 1.9258424821433449 0 0 0
37 1 0.053548505356463896 0.02749836685152296 3.665949979500187 0 0 0
3 1 1.7230793677678884 0.04888437267096535 1.7916706945555958 0 0 0
16 1 0.007497123140338414 5.401323533082474 1.731599738647399 0 0 0
56 1 3.5689489274952226 5.375657764314874 5.421156885885914 0 0 0
14 1 1.842803744895099 5.357376430362089 0.06383608233983 0 0 0
17 1 3.641932948402548 3.5997014053841334 0.003236713366393767 0 0 0
51 1 1.787813688831212 3.5790489944227186 5.4162116686301465 0 0 0
5 1 3.5939335014930904 0.002777902157865 0.007119205605014067 0 0 0
4 1 10.76456215938211 1.87604284197009 1.8568402524150718 -1 0 0
49 1 10.813423054411356 3.5162073710920176 3.649022903221786 -1 0 0
42 1 5.557463577262808 1.7978446306036633 3.6390965112852767 0 0 0
12 1 7.296027574461053 1.8916875140040035 1.7779591578385623 0 0 0
23 1 9.087250862551977 3.6517090130923 1.7331878261757692 0 0 0
46 1 8.958187944896753 1.7308593041149898 3.6614237615361898 0 0 0
57 1 7.172840944324833 3.575931942279478 3.6999880364484876 0 0 0
21 1 7.114846583643383 3.7739382207553267 0.04677928210457576 0 0 0
59 1 8.89910882728915 3.6311351121313424 5.399331319023486 0 0 0
7 1 5.497024618691746 0.02352931904456003 1.8882402156848312 0 0 0
11 1 9.167147624805096 0.07576845951963895 1.8250480431190004 0 0 0
6 1 5.562720655533932 1.841697300906988 0.09795342466492327 0 0 0
47 1 9.175117930545703 0.15903107990890802 5.44730953322179 0 0 0
41 1 3.6262380134251426 10.889804161905838 3.5564788487663836 0 -1 0
20 1 3.6516293312481105 5.500656913213336 1.9587119198065277 0 0 0
18 1 5.391981490656871 5.452790869053711 0.0529969351569869 0 0 0
50 1 1.6728253973198985 5.5130658921663445 3.5544710624168983 0 0 0
27 1 1.709245340272029 7.278173815117082 1.8527166637807677 0 0 0
32 1 3.5851859526459235 9.152021943896779 1.775453277430493 0 0 0
62 1 1.8466498106121474 9.041446047840502 3.71059983436025 0 0 0
65 1 3.6153219242937644 7.279895569800304 3.3993429910367277 0 0 0
28 1 0.12984677534347633 9.08683786423209 1.7767824652889994 0 0 0
29 1 3.5350943643852344 7.239319389837157 0.0867203773583603 0 0 0
43 1 5.391542467664728 10.852076173237883 5.427180077087328 0 -1 0
64 1 0.04950735931437012 9.184828001695541 5.438627926132937 0 0 0
68 1 3.7122716024295594 9.077547220129443 5.390432854472652 0 0 0
67 1 5.319119190000931 7.313480150366471 5.368011349356221 0 0 0
54 1 5.481310388553964 5.497685970093112 3.7681206402160314 0 0 0
58 1 9.364544973763834 5.45395232034958 3.6657280056621877 0 0 0
61 1 10.883920948819288 7.339937914120989 3.6043780178767135 -1 0 0
60 1 7.333700919269497 5.579869907844297 5.376165955388319 0 0 0
66 1 5.496897189435315 9.082559402765694 3.4998573348798168 0 0 0
31 1 5.463132829295469 7.2294035712216385 1.8076569582606856 0 0 0
24 1 7.328300594300742 5.509758753612932 1.9163869815196415 0 0 0
45 1 7.284320663110432 10.887144183327424 3.591815532782629 0 -1 0
35 1 9.107650796983378 7.301591668478944 1.650545738841002 0 0 0
36 1 7.2771401422193245 9.1490441083623 1.7842385400865208 0 0 0
69 1 7.367683616814855 7.30036786671051 3.6559857137305176 0 0 0
70 1 9.053596953608805 9.161393920841036 3.5347708026945184 0 0 0
34 1 9.246765901484215 9.122654814003933 0.06068836139195842 0 0 0
9 1 7.33803455653388 10.846839956634103 0.036747996595448695 0 -1 0
71 1 9.100222781661353 7.3100174423419135 5.432715974956223 0 0 0
2 1 1.8539727620202746 1.8334732271757161 10.875340362056777 0 0 -1
74 1 1.883606860867456 1.711268534946581 7.2235818165521835 0 0 0
80 1 3.7714131665936446 1.819154033251052 9.056246937716937 0 0 0
87 1 1.7593693762124796 3.549909221702907 9.083543027524248 0 0 0
89 1 3.639353735423366 3.58680521781506 7.469858562110948 0 0 0
77 1 3.739646188606242 0.1069088436429055 7.386480964298365 0 0 0
92 1 3.5944526223865423 5.400266498491478 9.0636889537157 0 0 0
88 1 0.04598337196667108 5.3551174206150955 9.185508655710624 0 0 0
86 1 1.6814381576969204 5.370381883901839 7.27212728866483 0 0 0
73 1 0.04460108254218298 0.036729818354697234 7.2659670497622395 0 0 0
55 1 5.59838057292392 3.7242410461028617 5.548341569359288 0 0 0
13 1 10.770103269985812 3.559012409204104 10.877643726897285 -1 0 -1
78 1 5.516932651324344 1.9001026362371822 7.37429824196504 0 0 0
1 1 10.80905198662409 0.0653271665265185 10.890743784809471 -1 0 -1
10 1 9.01791634424274 1.7537858444832448 10.897838988187534 0 0 -1
48 1 7.215280848492683 1.7601501500240058 5.647075646293236 0 0 0
76 1 10.780603902058417 1.8630969019123313 9.05170038858197 -1 0 0
40 1 10.8566962027596 1.8571367929848055 5.527946525371934 -1 0 0
85 1 10.835280149978596 3.6244516565828864 7.161394235194607 -1 0 0
91 1 5.573840586743378 3.805200681432788 9.1133824688534 0 0 0
82 1 9.102282891980414 1.8962152431915624 7.253658766160367 0 0 0
84 1 7.256754553131162 1.7890862911658652 9.101643915601835 0 0 0
93 1 7.33231496727473 3.681165946362207 7.21158851135398 0 0 0
95 1 9.03645839695628 3.7325446547650465 9.073914552075015 0 0 0
79 1 5.569188542101054 0.126231483408693 9.256242008431323 0 0 0
83 1 9.005785256850325 0.05218951993918175 9.027882436662273 0 0 0
94 1 9.065246055302381 5.431940914003579 7.246848780562232 0 0 0
39 1 1.897423903111891 10.777399342780551 5.519397110418739 0 -1 0
26 1 1.7768169468685309 9.037363776461731 10.80138425033229 0 0 -1
52 1 0.022743383028133776 5.5513804296144755 5.494633598670942 0 0 0
63 1 1.8273192965408571 7.306081037201299 5.470014123875116 0 0 0
75 1 1.9525526192555316 10.808527574519928 9.113332152724446 0 -1 0
98 1 1.8751337984315002 9.05613228897702 7.393070630237352 0 0 0
99 1 1.7734962712094264 7.226402013208255 8.989102213385248 0 0 0
101 1 3.614712931777375 7.104042057290644 7.2100083844629 0 0 0
104 1 3.8083321071032015 8.978653342893153 9.153071587947213 0 0 0
25 1 0.10269402282479194 7.287234360561728 10.83065374325987 0 0 -1
102 1 5.32305805480124 9.104502108899995 7.273093690487348 0 0 0
90 1 5.368134929517129 5.496820357341552 7.3415717780518515 0 0 0
97 1 0.00482608982339805 7.242797662444741 7.366271906075262 0 0 0
103 1 5.428409801942216 7.181216891314846 9.205750277118605 0 0 0
22 1 9.035470329818834 5.451541824201365 10.767318689196783 0 0 -1
81 1 7.163586254089922 10.734324183626514 7.221004641445557 0 -1 0
30 1 5.492892420720745 8.96889168972002 10.860672429295564 0 0 -1
33 1 7.367474827479215 7.198497456667136 10.851458250568449 0 0 -1
72 1 7.259332342613125 9.093121545281583 5.465134996656783 0 0 0
96 1 7.286300340104024 5.466793479658705 8.957316460139648 0 0 0
100 1 10.779472955389823 9.133643368964695 9.07145090659383 -1 0 0
105 1 7.225103102697179 7.254542495785926 7.164621662226667 0 0 0
106 1 9.053355144912667 9.230438437937142 7.147780444051815 0 0 0
107 1 9.166977792846344 7.211330906475646 9.071220221142651 0 0 0
108 1 7.455302757624683 8.986247827938104 9.129883756113374 0 0 0

Velocities

8 -3.5380061862641172 -5.900428775866433 -0.43409711073588747
15 0.939283263976367 0.5489767237042799 1.1773047561773247
38 0.12235482500634291 0.45971748046353084 -1.2186373352702466
53 3.1453328811368513 1.006382935627505 -6.707146488569439
44 -0.5186847900886397 -0.011300224648338911 -0.33950395613829304
19 3.215578590423062 -1.7932434376101245 2.020947202487345
37 -0.22282665429971793 1.1652343140615797 1.9610624681353435
3 0.14130008672813055 2.2839910845476497 -0.8647462791662143
16 -1.319114164219109 -1.225257702411709 1.966257165445597
56 -5.820715309683025 2.547195680598535 1.7698193279608936
14 1.4689372495888118 -1.2744147235343037 2.1395328061866548
17 0.18986174784737656 1.2021984740444616 -3.8378584143548915
51 -1.051519990392749 -1.694129563328133 0.7598368873942585
5 -2.512252269591839 -3.455750650754748 0.6154233821041817
4 -2.3335408890758496 0.6652880343280605 2.7562215083428065
49 -1.2615532450969527 3.60254974120488 -0.7651618707346125
42 -2.053671544062173 -1.1480809532061536 1.3430470819699556
12 1.2135255329751131 1.2496945137533966 0.21150714390393685
23 0.09112236978013259 1.4154332574203998 -0.06932933128909037
46 1.1855465143676636 1.2061647048088373 1.808799679004114
57 0.5316954280133083 0.7431608708949207 0.9369975025138066
21 1.3136303425625524 2.770368162186873 -0.12861171284470316
59 0.00734267967365482 -0.5174507392211913 0.29879393299109425
7 -0.21098029877724872 -0.8442133024106352 -2.2009811227359135
11 -0.15670481918507123 1.5303458395246272 -4.66838290787283
6 0.6109199392091086 -2.1177687506828184 2.010593251703069
47 2.8453507576753134 2.1003374997588584 -3.0524730867944845
41 1.539922692193229 1.4409583753574193 -0.45747295448639447
20 -1.7407833799616843 0.7063854236139673 0.8532153469811238
18 0.5811985973435316 3.4740471244739637 -2.6080193724828202
50 0.671371572803626 1.7759963725722212 -1.5252420327108338
27 1.1813647270907386 -0.9383928512541382 0.24845166184645162
32 1.8345619841071794 4.552703027029724 0.3474056165661485
62 2.50804775872579 0.5541732257203411 -0.17560224092548496
65 2.1962806884579105 1.651822647727896 0.0448509025809691
28 1.825553615142201 1.3619841760781848 1.8154135561635119
29 0.08448629681161049 0.4732199043381903 0.4000273476493314
43 -1.479000287112981 1.4018395832846926 1.8700005566761022
64 -2.166589346851214 0.4146008575044088 3.7904331363937334
68 0.5221084025548614 2.3513818683683287 0.47110022900288867
67 -0.3253298923459217 -2.0422117746341657 -0.8865535645755367
54 -2.0750873215657597 4.088425324697505 1.0095533257645701
58 -1.4047719721014835 1.623005198589496 -0.08603069997775543
61 1.1456364557068264 -0.5973246318364032 -0.12964059330856473
60 0.8842043999676865 1.74972667099937 -0.9621756454347621
66 -1.4991354246034232 -2.8445175564243774 0.9801206289412016
31 -2.3553780624467375 1.8527311309329166 0.45264614838113476
24 -2.1160931893769823 -3.348678915984681 2.2341800097388784
45 1.333087611673213 -2.741885265856349 -2.023506631187732
35 2.7021809157627943 0.9500548225157496 0.30750138611449074
36 -0.44033230551989483 0.38473569345791253 0.24014255758845604
69 1.0085580075396396 2.4853004477066105 1.732776204527878
70 -2.4202618142565977 -1.7989946176492773 5.810795429221138
34 -1.4454019068774133 -2.660974397150545 -0.7980327740894759
9 -4.742258786670869 0.6621354351405285 1.1259970577516265
71 -1.0775745902940224 -0.10774176675744745 -1.7490526403073772
2 1.383410097019108 0.28170849914671586 0.31091705516524354
74 -1.331538661648798 2.361956413354369 0.7461309163203835
80 -0.3005510991008225 0.811900850692001 -2.7684143502843868
87 1.406531882891544 0.808823965640363 0.34145007566125907
89 -1.5500302076031434 1.0968884204314222 -0.3961757228512936
77 0.4542278450683503 -2.1650319096608373 -0.04192979109154132
92 -0.22689356456409712 -2.0284019545338206 1.2475789221759195
88 0.2503329735686307 -4.578348461029478 0.2762131997282133
86 1.9089664629986745 -1.5993193897320828 3.4304128839931973
73 2.3067731680767736 -2.6638064790928584 2.372372430708032
55 1.8310585663607606 -2.513425694301281 -0.9268114112470085
13 1.9377818244949234 0.6458019469330916 -0.5773182155636457
78 2.924354785508671 -0.5358008929750536 2.4542270092169116
1 0.6440564425540403 2.764801400643494 1.5280115943409889
10 -0.09313538584764287 -0.35808857611738987 -0.40247482494965253
48 1.037520252333107 -2.732095934823343 5.4282156869969915
76 1.112569851049956 -2.33288299158284 -1.161994044984073
40 1.9040293044241279 -3.0917064527497216 -0.40266344545660143
85 3.3628823692229597 -0.7197443326934495 -2.064618402562714
91 3.3618201214829915 -1.4811250206025626 -2.6241555786619117
82 -0.3481691106300536 -3.159923849706617 1.0904097917091922
84 2.2559469953183133 1.9269847094199453 1.8735198402302844
93 -0.5847804505908835 2.1252668937679493 0.3060710235309791
95 -0.19594036675881812 4.609186674729712 -6.454150707754217
79 1.6269244408675274 -2.6869111128691934 -3.1674091434525415
83 -1.9110737655874759 3.5504827377372754 -1.2838985326802714
94 -1.1688723034408286 -6.1771355123467275 0.521873175769066
39 1.909548527950432 -5.3346537172790764 -4.302132400392452
26 -1.4596626746205754 -3.1386379651140683 -3.0311661322834875
52 -0.5728936401496412 -1.3939721568110777 3.570836741025022
63 0.2368621484509445 1.8542033363501278 -0.9146196962276885
75 0.09974338540883719 0.25280688478551727 -3.108593765508628
98 -3.08599420525946 1.2006322827081235 -0.049620426827801434
99 -0.5624236536110221 0.2622580070075033 -0.62377517724112
101 0.7938681626526033 -0.6461107425016529 0.8307088272929786
104 1.2352054292421177 0.07025446435715926 0.06192220478387326
25 -4.405789182889658 2.251487794758439 1.8004429949606666
102 0.10009516213882208 -0.9065600544819526 -0.6571060365000078
90 0.23255166612547803 2.4114852963139173 -1.233110883055376
97 0.8991102369809598 -3.8486381906267004 -3.8902374597124036
103 -2.154226484764249 0.5347370990288253 0.6165701735257091
22 0.4471308165830601 -1.0940534184780064 -2.1716293748780156
81 -2.182065340582301 0.024733953332846375 1.9477202548180834
30 0.7971688284895925 1.4010354544021448 2.9565497309383306
33 -1.6414965810955235 -1.6224647824856502 0.32756382917683374
72 2.33143177114733 -1.205022010371472 -0.01774737224956104
96 -1.2638877973270488 -0.9425531676529677 -1.7136867635379855
100 -0.678245055945638 1.7466357782010344 0.7058959254008995
105 0.5787552952458018 1.2927564158567169 -0.7726845439945178
106 -2.8427919448871606 0.5152792557724695 1.729452089718221
107 0.8290027631141462 -0.1465429385329618 0.0791642617233557
108 -2.3919775939890116 2.9113431479658103 -1.6186028671782593
