
432 atoms
6 atom types
   0.0000000000   19.9195500000 xlo xhi
   0.0000000000   19.9195500000 ylo yhi
   0.0000000000   19.9195500000 zlo zhi
   0.0000000000    0.0000000000    0.0000000000 xy xz yz

Atoms # atomic

     1      1    0.0000000000    0.0000000000    6.6398500000
     2      1    0.0000000000    0.0000000000   13.2797000000
     3      1    0.0000000000    0.0000000000   19.9195500000
     4      1    0.0000000000    6.6398500000    6.6398500000
     5      1    0.0000000000    6.6398500000   13.2797000000
     6      1    0.0000000000    6.6398500000   19.9195500000
     7      1    0.0000000000   13.2797000000    6.6398500000
     8      1    0.0000000000   13.2797000000   13.2797000000
     9      1    0.0000000000   13.2797000000   19.9195500000
    10      1    6.6398500000    0.0000000000    6.6398500000
    11      1    6.6398500000    0.0000000000   13.2797000000
    12      1    6.6398500000    0.0000000000   19.9195500000
    13      1    6.6398500000    6.6398500000    6.6398500000
    14      1    6.6398500000    6.6398500000   13.2797000000
    15      1    6.6398500000    6.6398500000   19.9195500000
    16      1    6.6398500000   13.2797000000    6.6398500000
    17      1    6.6398500000   13.2797000000   13.2797000000
    18      1    6.6398500000   13.2797000000   19.9195500000
    19      1   13.2797000000    0.0000000000    6.6398500000
    20      1   13.2797000000    0.0000000000   13.2797000000
    21      1   13.2797000000    0.0000000000   19.9195500000
    22      1   13.2797000000    6.6398500000    6.6398500000
    23      1   13.2797000000    6.6398500000   13.2797000000
    24      1   13.2797000000    6.6398500000   19.9195500000
    25      1   13.2797000000   13.2797000000    6.6398500000
    26      1   13.2797000000   13.2797000000   13.2797000000
    27      1   13.2797000000   13.2797000000   19.9195500000
    28      1    0.0000000000    0.0000000000    3.3199250000
    29      1    0.0000000000    0.0000000000    9.9597750000
    30      1    0.0000000000    0.0000000000   16.5996250000
    31      1    0.0000000000    6.6398500000    3.3199250000
    32      1    0.0000000000    6.6398500000    9.9597750000
    33      1    0.0000000000    6.6398500000   16.5996250000
    34      1    0.0000000000   13.2797000000    3.3199250000
    35      1    0.0000000000   13.2797000000    9.9597750000
    36      1    0.0000000000   13.2797000000   16.5996250000
    37      1    6.6398500000    0.0000000000    3.3199250000
    38      1    6.6398500000    0.0000000000    9.9597750000
    39      1    6.6398500000    0.0000000000   16.5996250000
    40      1    6.6398500000    6.6398500000    3.3199250000
    41      1    6.6398500000    6.6398500000    9.9597750000
    42      1    6.6398500000    6.6398500000   16.5996250000
    43      1    6.6398500000   13.2797000000    3.3199250000
    44      1    6.6398500000   13.2797000000    9.9597750000
    45      1    6.6398500000   13.2797000000   16.5996250000
    46      1   13.2797000000    0.0000000000    3.3199250000
    47      1   13.2797000000    0.0000000000    9.9597750000
    48      1   13.2797000000    0.0000000000   16.5996250000
    49      1   13.2797000000    6.6398500000    3.3199250000
    50      1   13.2797000000    6.6398500000    9.9597750000
    51      1   13.2797000000    6.6398500000   16.5996250000
    52      1   13.2797000000   13.2797000000    3.3199250000
    53      1   13.2797000000   13.2797000000    9.9597750000
    54      1   13.2797000000   13.2797000000   16.5996250000
    55      1    0.0000000000    3.3199250000    6.6398500000
    56      1    0.0000000000    3.3199250000   13.2797000000
    57      1    0.0000000000    3.3199250000   19.9195500000
    58      1    0.0000000000    9.9597750000    6.6398500000
    59      1    0.0000000000    9.9597750000   13.2797000000
    60      1    0.0000000000    9.9597750000   19.9195500000
    61      1    0.0000000000   16.5996250000    6.6398500000
    62      1    0.0000000000   16.5996250000   13.2797000000
    63      1    0.0000000000   16.5996250000   19.9195500000
    64      1    6.6398500000    3.3199250000    6.6398500000
    65      1    6.6398500000    3.3199250000   13.2797000000
    66      1    6.6398500000    3.3199250000   19.9195500000
    67      1    6.6398500000    9.9597750000    6.6398500000
    68      1    6.6398500000    9.9597750000   13.2797000000
    69      1    6.6398500000    9.9597750000   19.9195500000
    70      1    6.6398500000   16.5996250000    6.6398500000
    71      1    6.6398500000   16.5996250000   13.2797000000
    72      1    6.6398500000   16.5996250000   19.9195500000
    73      1   13.2797000000    3.3199250000    6.6398500000
    74      1   13.2797000000    3.3199250000   13.2797000000
    75      1   13.2797000000    3.3199250000   19.9195500000
    76      1   13.2797000000    9.9597750000    6.6398500000
    77      1   13.2797000000    9.9597750000   13.2797000000
    78      1   13.2797000000    9.9597750000   19.9195500000
    79      1   13.2797000000   16.5996250000    6.6398500000
    80      1   13.2797000000   16.5996250000   13.2797000000
    81      1   13.2797000000   16.5996250000   19.9195500000
    82      2    0.0000000000    3.3199250000    3.3199250000
    83      2    0.0000000000    3.3199250000    9.9597750000
    84      2    0.0000000000    3.3199250000   16.5996250000
    85      2    0.0000000000    9.9597750000    3.3199250000
    86      2    0.0000000000    9.9597750000    9.9597750000
    87      2    0.0000000000    9.9597750000   16.5996250000
    88      2    0.0000000000   16.5996250000    3.3199250000
    89      2    0.0000000000   16.5996250000    9.9597750000
    90      2    0.0000000000   16.5996250000   16.5996250000
    91      2    6.6398500000    3.3199250000    3.3199250000
    92      2    6.6398500000    3.3199250000    9.9597750000
    93      2    6.6398500000    3.3199250000   16.5996250000
    94      2    6.6398500000    9.9597750000    3.3199250000
    95      2    6.6398500000    9.9597750000    9.9597750000
    96      2    6.6398500000    9.9597750000   16.5996250000
    97      2    6.6398500000   16.5996250000    3.3199250000
    98      2    6.6398500000   16.5996250000    9.9597750000
    99      2    6.6398500000   16.5996250000   16.5996250000
   100      2   13.2797000000    3.3199250000    3.3199250000
   101      2   13.2797000000    3.3199250000    9.9597750000
   102      2   13.2797000000    3.3199250000   16.5996250000
   103      2   13.2797000000    9.9597750000    3.3199250000
   104      2   13.2797000000    9.9597750000    9.9597750000
   105      2   13.2797000000    9.9597750000   16.5996250000
   106      2   13.2797000000   16.5996250000    3.3199250000
   107      2   13.2797000000   16.5996250000    9.9597750000
   108      2   13.2797000000   16.5996250000   16.5996250000
   109      2    3.3199250000    0.0000000000    6.6398500000
   110      2    3.3199250000    0.0000000000   13.2797000000
   111      2    3.3199250000    0.0000000000   19.9195500000
   112      2    3.3199250000    6.6398500000    6.6398500000
   113      2    3.3199250000    6.6398500000   13.2797000000
   114      2    3.3199250000    6.6398500000   19.9195500000
   115      2    3.3199250000   13.2797000000    6.6398500000
   116      2    3.3199250000   13.2797000000   13.2797000000
   117      2    3.3199250000   13.2797000000   19.9195500000
   118      2    9.9597750000    0.0000000000    6.6398500000
   119      2    9.9597750000    0.0000000000   13.2797000000
   120      2    9.9597750000    0.0000000000   19.9195500000
   121      2    9.9597750000    6.6398500000    6.6398500000
   122      2    9.9597750000    6.6398500000   13.2797000000
   123      2    9.9597750000    6.6398500000   19.9195500000
   124      2    9.9597750000   13.2797000000    6.6398500000
   125      2    9.9597750000   13.2797000000   13.2797000000
   126      2    9.9597750000   13.2797000000   19.9195500000
   127      2   16.5996250000    0.0000000000    6.6398500000
   128      2   16.5996250000    0.0000000000   13.2797000000
   129      2   16.5996250000    0.0000000000   19.9195500000
   130      2   16.5996250000    6.6398500000    6.6398500000
   131      2   16.5996250000    6.6398500000   13.2797000000
   132      2   16.5996250000    6.6398500000   19.9195500000
   133      2   16.5996250000   13.2797000000    6.6398500000
   134      2   16.5996250000   13.2797000000   13.2797000000
   135      2   16.5996250000   13.2797000000   19.9195500000
   136      2    3.3199250000    0.0000000000    3.3199250000
   137      2    3.3199250000    0.0000000000    9.9597750000
   138      2    3.3199250000    0.0000000000   16.5996250000
   139      2    3.3199250000    6.6398500000    3.3199250000
   140      2    3.3199250000    6.6398500000    9.9597750000
   141      2    3.3199250000    6.6398500000   16.5996250000
   142      2    3.3199250000   13.2797000000    3.3199250000
   143      2    3.3199250000   13.2797000000    9.9597750000
   144      2    3.3199250000   13.2797000000   16.5996250000
   145      2    9.9597750000    0.0000000000    3.3199250000
   146      2    9.9597750000    0.0000000000    9.9597750000
   147      2    9.9597750000    0.0000000000   16.5996250000
   148      2    9.9597750000    6.6398500000    3.3199250000
   149      2    9.9597750000    6.6398500000    9.9597750000
   150      2    9.9597750000    6.6398500000   16.5996250000
   151      2    9.9597750000   13.2797000000    3.3199250000
   152      2    9.9597750000   13.2797000000    9.9597750000
   153      2    9.9597750000   13.2797000000   16.5996250000
   154      2   16.5996250000    0.0000000000    3.3199250000
   155      2   16.5996250000    0.0000000000    9.9597750000
   156      2   16.5996250000    0.0000000000   16.5996250000
   157      2   16.5996250000    6.6398500000    3.3199250000
   158      2   16.5996250000    6.6398500000    9.9597750000
   159      2   16.5996250000    6.6398500000   16.5996250000
   160      2   16.5996250000   13.2797000000    3.3199250000
   161      2   16.5996250000   13.2797000000    9.9597750000
   162      2   16.5996250000   13.2797000000   16.5996250000
   163      3    3.3199250000    3.3199250000    6.6398500000
   164      3    3.3199250000    3.3199250000   13.2797000000
   165      3    3.3199250000    3.3199250000   19.9195500000
   166      3    3.3199250000    9.9597750000    6.6398500000
   167      3    3.3199250000    9.9597750000   13.2797000000
   168      3    3.3199250000    9.9597750000   19.9195500000
   169      3    3.3199250000   16.5996250000    6.6398500000
   170      3    3.3199250000   16.5996250000   13.2797000000
   171      3    3.3199250000   16.5996250000   19.9195500000
   172      3    9.9597750000    3.3199250000    6.6398500000
   173      3    9.9597750000    3.3199250000   13.2797000000
   174      3    9.9597750000    3.3199250000   19.9195500000
   175      3    9.9597750000    9.9597750000    6.6398500000
   176      3    9.9597750000    9.9597750000   13.2797000000
   177      3    9.9597750000    9.9597750000   19.9195500000
   178      3    9.9597750000   16.5996250000    6.6398500000
   179      3    9.9597750000   16.5996250000   13.2797000000
   180      3    9.9597750000   16.5996250000   19.9195500000
   181      3   16.5996250000    3.3199250000    6.6398500000
   182      3   16.5996250000    3.3199250000   13.2797000000
   183      3   16.5996250000    3.3199250000   19.9195500000
   184      3   16.5996250000    9.9597750000    6.6398500000
   185      3   16.5996250000    9.9597750000   13.2797000000
   186      3   16.5996250000    9.9597750000   19.9195500000
   187      3   16.5996250000   16.5996250000    6.6398500000
   188      3   16.5996250000   16.5996250000   13.2797000000
   189      3   16.5996250000   16.5996250000   19.9195500000
   190      3    3.3199250000    3.3199250000    3.3199250000
   191      3    3.3199250000    3.3199250000    9.9597750000
   192      3    3.3199250000    3.3199250000   16.5996250000
   193      3    3.3199250000    9.9597750000    3.3199250000
   194      3    3.3199250000    9.9597750000    9.9597750000
   195      3    3.3199250000    9.9597750000   16.5996250000
   196      3    3.3199250000   16.5996250000    3.3199250000
   197      3    3.3199250000   16.5996250000    9.9597750000
   198      3    3.3199250000   16.5996250000   16.5996250000
   199      3    9.9597750000    3.3199250000    3.3199250000
   200      3    9.9597750000    3.3199250000    9.9597750000
   201      3    9.9597750000    3.3199250000   16.5996250000
   202      3    9.9597750000    9.9597750000    3.3199250000
   203      3    9.9597750000    9.9597750000    9.9597750000
   204      3    9.9597750000    9.9597750000   16.5996250000
   205      3    9.9597750000   16.5996250000    3.3199250000
   206      3    9.9597750000   16.5996250000    9.9597750000
   207      3    9.9597750000   16.5996250000   16.5996250000
   208      3   16.5996250000    3.3199250000    3.3199250000
   209      3   16.5996250000    3.3199250000    9.9597750000
   210      3   16.5996250000    3.3199250000   16.5996250000
   211      3   16.5996250000    9.9597750000    3.3199250000
   212      3   16.5996250000    9.9597750000    9.9597750000
   213      3   16.5996250000    9.9597750000   16.5996250000
   214      3   16.5996250000   16.5996250000    3.3199250000
   215      3   16.5996250000   16.5996250000    9.9597750000
   216      3   16.5996250000   16.5996250000   16.5996250000
   217      3    1.6599625000    1.6599625000    1.6599625000
   218      3    1.6599625000    1.6599625000    8.2998125000
   219      3    1.6599625000    1.6599625000   14.9396625000
   220      3    1.6599625000    8.2998125000    1.6599625000
   221      3    1.6599625000    8.2998125000    8.2998125000
   222      3    1.6599625000    8.2998125000   14.9396625000
   223      3    1.6599625000   14.9396625000    1.6599625000
   224      3    1.6599625000   14.9396625000    8.2998125000
   225      3    1.6599625000   14.9396625000   14.9396625000
   226      3    8.2998125000    1.6599625000    1.6599625000
   227      3    8.2998125000    1.6599625000    8.2998125000
   228      3    8.2998125000    1.6599625000   14.9396625000
   229      3    8.2998125000    8.2998125000    1.6599625000
   230      3    8.2998125000    8.2998125000    8.2998125000
   231      3    8.2998125000    8.2998125000   14.9396625000
   232      3    8.2998125000   14.9396625000    1.6599625000
   233      3    8.2998125000   14.9396625000    8.2998125000
   234      3    8.2998125000   14.9396625000   14.9396625000
   235      3   14.9396625000    1.6599625000    1.6599625000
   236      3   14.9396625000    1.6599625000    8.2998125000
   237      3   14.9396625000    1.6599625000   14.9396625000
   238      3   14.9396625000    8.2998125000    1.6599625000
   239      3   14.9396625000    8.2998125000    8.2998125000
   240      3   14.9396625000    8.2998125000   14.9396625000
   241      3   14.9396625000   14.9396625000    1.6599625000
   242      3   14.9396625000   14.9396625000    8.2998125000
   243      3   14.9396625000   14.9396625000   14.9396625000
   244      4    1.6599625000    1.6599625000    4.9798875000
   245      4    1.6599625000    1.6599625000   11.6197375000
   246      4    1.6599625000    1.6599625000   18.2595875000
   247      4    1.6599625000    8.2998125000    4.9798875000
   248      4    1.6599625000    8.2998125000   11.6197375000
   249      4    1.6599625000    8.2998125000   18.2595875000
   250      4    1.6599625000   14.9396625000    4.9798875000
   251      4    1.6599625000   14.9396625000   11.6197375000
   252      4    1.6599625000   14.9396625000   18.2595875000
   253      4    8.2998125000    1.6599625000    4.9798875000
   254      4    8.2998125000    1.6599625000   11.6197375000
   255      4    8.2998125000    1.6599625000   18.2595875000
   256      4    8.2998125000    8.2998125000    4.9798875000
   257      4    8.2998125000    8.2998125000   11.6197375000
   258      4    8.2998125000    8.2998125000   18.2595875000
   259      4    8.2998125000   14.9396625000    4.9798875000
   260      4    8.2998125000   14.9396625000   11.6197375000
   261      4    8.2998125000   14.9396625000   18.2595875000
   262      4   14.9396625000    1.6599625000    4.9798875000
   263      4   14.9396625000    1.6599625000   11.6197375000
   264      4   14.9396625000    1.6599625000   18.2595875000
   265      4   14.9396625000    8.2998125000    4.9798875000
   266      4   14.9396625000    8.2998125000   11.6197375000
   267      4   14.9396625000    8.2998125000   18.2595875000
   268      4   14.9396625000   14.9396625000    4.9798875000
   269      4   14.9396625000   14.9396625000   11.6197375000
   270      4   14.9396625000   14.9396625000   18.2595875000
   271      4    1.6599625000    4.9798875000    1.6599625000
   272      4    1.6599625000    4.9798875000    8.2998125000
   273      4    1.6599625000    4.9798875000   14.9396625000
   274      4    1.6599625000   11.6197375000    1.6599625000
   275      4    1.6599625000   11.6197375000    8.2998125000
   276      4    1.6599625000   11.6197375000   14.9396625000
   277      4    1.6599625000   18.2595875000    1.6599625000
   278      4    1.6599625000   18.2595875000    8.2998125000
   279      4    1.6599625000   18.2595875000   14.9396625000
   280      4    8.2998125000    4.9798875000    1.6599625000
   281      4    8.2998125000    4.9798875000    8.2998125000
   282      4    8.2998125000    4.9798875000   14.9396625000
   283      4    8.2998125000   11.6197375000    1.6599625000
   284      4    8.2998125000   11.6197375000    8.2998125000
   285      4    8.2998125000   11.6197375000   14.9396625000
   286      4    8.2998125000   18.2595875000    1.6599625000
   287      4    8.2998125000   18.2595875000    8.2998125000
   288      4    8.2998125000   18.2595875000   14.9396625000
   289      4   14.9396625000    4.9798875000    1.6599625000
   290      4   14.9396625000    4.9798875000    8.2998125000
   291      4   14.9396625000    4.9798875000   14.9396625000
   292      4   14.9396625000   11.6197375000    1.6599625000
   293      4   14.9396625000   11.6197375000    8.2998125000
   294      4   14.9396625000   11.6197375000   14.9396625000
   295      4   14.9396625000   18.2595875000    1.6599625000
   296      4   14.9396625000   18.2595875000    8.2998125000
   297      4   14.9396625000   18.2595875000   14.9396625000
   298      4    1.6599625000    4.9798875000    4.9798875000
   299      4    1.6599625000    4.9798875000   11.6197375000
   300      4    1.6599625000    4.9798875000   18.2595875000
   301      4    1.6599625000   11.6197375000    4.9798875000
   302      4    1.6599625000   11.6197375000   11.6197375000
   303      4    1.6599625000   11.6197375000   18.2595875000
   304      4    1.6599625000   18.2595875000    4.9798875000
   305      4    1.6599625000   18.2595875000   11.6197375000
   306      4    1.6599625000   18.2595875000   18.2595875000
   307      4    8.2998125000    4.9798875000    4.9798875000
   308      4    8.2998125000    4.9798875000   11.6197375000
   309      4    8.2998125000    4.9798875000   18.2595875000
   310      4    8.2998125000   11.6197375000    4.9798875000
   311      4    8.2998125000   11.6197375000   11.6197375000
   312      4    8.2998125000   11.6197375000   18.2595875000
   313      4    8.2998125000   18.2595875000    4.9798875000
   314      4    8.2998125000   18.2595875000   11.6197375000
   315      4    8.2998125000   18.2595875000   18.2595875000
   316      4   14.9396625000    4.9798875000    4.9798875000
   317      4   14.9396625000    4.9798875000   11.6197375000
   318      4   14.9396625000    4.9798875000   18.2595875000
   319      4   14.9396625000   11.6197375000    4.9798875000
   320      4   14.9396625000   11.6197375000   11.6197375000
   321      4   14.9396625000   11.6197375000   18.2595875000
   322      4   14.9396625000   18.2595875000    4.9798875000
   323      4   14.9396625000   18.2595875000   11.6197375000
   324      4   14.9396625000   18.2595875000   18.2595875000
   325      5    4.9798875000    1.6599625000    1.6599625000
   326      5    4.9798875000    1.6599625000    8.2998125000
   327      5    4.9798875000    1.6599625000   14.9396625000
   328      5    4.9798875000    8.2998125000    1.6599625000
   329      5    4.9798875000    8.2998125000    8.2998125000
   330      5    4.9798875000    8.2998125000   14.9396625000
   331      5    4.9798875000   14.9396625000    1.6599625000
   332      5    4.9798875000   14.9396625000    8.2998125000
   333      5    4.9798875000   14.9396625000   14.9396625000
   334      5   11.6197375000    1.6599625000    1.6599625000
   335      5   11.6197375000    1.6599625000    8.2998125000
   336      5   11.6197375000    1.6599625000   14.9396625000
   337      5   11.6197375000    8.2998125000    1.6599625000
   338      5   11.6197375000    8.2998125000    8.2998125000
   339      5   11.6197375000    8.2998125000   14.9396625000
   340      5   11.6197375000   14.9396625000    1.6599625000
   341      5   11.6197375000   14.9396625000    8.2998125000
   342      5   11.6197375000   14.9396625000   14.9396625000
   343      5   18.2595875000    1.6599625000    1.6599625000
   344      5   18.2595875000    1.6599625000    8.2998125000
   345      5   18.2595875000    1.6599625000   14.9396625000
   346      5   18.2595875000    8.2998125000    1.6599625000
   347      5   18.2595875000    8.2998125000    8.2998125000
   348      5   18.2595875000    8.2998125000   14.9396625000
   349      5   18.2595875000   14.9396625000    1.6599625000
   350      5   18.2595875000   14.9396625000    8.2998125000
   351      5   18.2595875000   14.9396625000   14.9396625000
   352      5    4.9798875000    1.6599625000    4.9798875000
   353      5    4.9798875000    1.6599625000   11.6197375000
   354      5    4.9798875000    1.6599625000   18.2595875000
   355      5    4.9798875000    8.2998125000    4.9798875000
   356      5    4.9798875000    8.2998125000   11.6197375000
   357      5    4.9798875000    8.2998125000   18.2595875000
   358      5    4.9798875000   14.9396625000    4.9798875000
   359      5    4.9798875000   14.9396625000   11.6197375000
   360      5    4.9798875000   14.9396625000   18.2595875000
   361      5   11.6197375000    1.6599625000    4.9798875000
   362      5   11.6197375000    1.6599625000   11.6197375000
   363      5   11.6197375000    1.6599625000   18.2595875000
   364      5   11.6197375000    8.2998125000    4.9798875000
   365      5   11.6197375000    8.2998125000   11.6197375000
   366      5   11.6197375000    8.2998125000   18.2595875000
   367      5   11.6197375000   14.9396625000    4.9798875000
   368      5   11.6197375000   14.9396625000   11.6197375000
   369      5   11.6197375000   14.9396625000   18.2595875000
   370      5   18.2595875000    1.6599625000    4.9798875000
   371      5   18.2595875000    1.6599625000   11.6197375000
   372      5   18.2595875000    1.6599625000   18.2595875000
   373      5   18.2595875000    8.2998125000    4.9798875000
   374      5   18.2595875000    8.2998125000   11.6197375000
   375      5   18.2595875000    8.2998125000   18.2595875000
   376      5   18.2595875000   14.9396625000    4.9798875000
   377      5   18.2595875000   14.9396625000   11.6197375000
   378      5   18.2595875000   14.9396625000   18.2595875000
   379      5    4.9798875000    4.9798875000    1.6599625000
   380      5    4.9798875000    4.9798875000    8.2998125000
   381      5    4.9798875000    4.9798875000   14.9396625000
   382      5    4.9798875000   11.6197375000    1.6599625000
   383      5    4.9798875000   11.6197375000    8.2998125000
   384      5    4.9798875000   11.6197375000   14.9396625000
   385      5    4.9798875000   18.2595875000    1.6599625000
   386      5    4.9798875000   18.2595875000    8.2998125000
   387      5    4.9798875000   18.2595875000   14.9396625000
   388      5   11.6197375000    4.9798875000    1.6599625000
   389      5   11.6197375000    4.9798875000    8.2998125000
   390      5   11.6197375000    4.9798875000   14.9396625000
   391      5   11.6197375000   11.6197375000    1.6599625000
   392      5   11.6197375000   11.6197375000    8.2998125000
   393      5   11.6197375000   11.6197375000   14.9396625000
   394      5   11.6197375000   18.2595875000    1.6599625000
   395      5   11.6197375000   18.2595875000    8.2998125000
   396      5   11.6197375000   18.2595875000   14.9396625000
   397      5   18.2595875000    4.9798875000    1.6599625000
   398      5   18.2595875000    4.9798875000    8.2998125000
   399      5   18.2595875000    4.9798875000   14.9396625000
   400      5   18.2595875000   11.6197375000    1.6599625000
   401      5   18.2595875000   11.6197375000    8.2998125000
   402      5   18.2595875000   11.6197375000   14.9396625000
   403      5   18.2595875000   18.2595875000    1.6599625000
   404      5   18.2595875000   18.2595875000    8.2998125000
   405      5   18.2595875000   18.2595875000   14.9396625000
   406      6    4.9798875000    4.9798875000    4.9798875000
   407      6    4.9798875000    4.9798875000   11.6197375000
   408      6    4.9798875000    4.9798875000   18.2595875000
   409      6    4.9798875000   11.6197375000    4.9798875000
   410      6    4.9798875000   11.6197375000   11.6197375000
   411      6    4.9798875000   11.6197375000   18.2595875000
   412      6    4.9798875000   18.2595875000    4.9798875000
   413      6    4.9798875000   18.2595875000   11.6197375000
   414      6    4.9798875000   18.2595875000   18.2595875000
   415      6   11.6197375000    4.9798875000    4.9798875000
   416      6   11.6197375000    4.9798875000   11.6197375000
   417      6   11.6197375000    4.9798875000   18.2595875000
   418      6   11.6197375000   11.6197375000    4.9798875000
   419      6   11.6197375000   11.6197375000   11.6197375000
   420      6   11.6197375000   11.6197375000   18.2595875000
   421      6   11.6197375000   18.2595875000    4.9798875000
   422      6   11.6197375000   18.2595875000   11.6197375000
   423      6   11.6197375000   18.2595875000   18.2595875000
   424      6   18.2595875000    4.9798875000    4.9798875000
   425      6   18.2595875000    4.9798875000   11.6197375000
   426      6   18.2595875000    4.9798875000   18.2595875000
   427      6   18.2595875000   11.6197375000    4.9798875000
   428      6   18.2595875000   11.6197375000   11.6197375000
   429      6   18.2595875000   11.6197375000   18.2595875000
   430      6   18.2595875000   18.2595875000    4.9798875000
   431      6   18.2595875000   18.2595875000   11.6197375000
   432      6   18.2595875000   18.2595875000   18.2595875000

