LAMMPS data file via write_data, version 29 Oct 2020, timestep = 14000

192 atoms
2 atom types

0.0 12.4447 xlo xhi
0.0 12.4447 ylo yhi
0.0 12.4447 zlo zhi
0.0 0.0 0.0 xy xz yz

Masses

1 16
2 2

Atoms # atomic

1 1 1.404562010539068 1.2213335373925822 0.41804827992277055 1 0 0
2 1 9.024123652117853 7.8914444142779665 5.012723592124799 0 0 0
3 1 12.07395873430649 6.712884720820378 2.5259007526815953 0 0 0
4 1 1.7289229600295635 1.6124084873670372 4.726384795054744 0 0 0
5 1 4.557250176695882 11.828822159765481 11.497901251581498 0 0 0
6 1 5.824915649518554 2.7007406082236933 5.6449726385101835 0 0 0
7 1 3.7810496911152054 9.967729430530188 9.422353031611982 0 0 0
8 1 5.780076502541057 0.46405482717271457 2.3823469993073694 0 1 0
9 1 9.712153429930437 11.957147723349689 0.5296312916649878 0 0 0
10 1 11.046440703900176 10.153402482403218 6.494625643789099 0 -1 0
11 1 5.998026765648587 8.951023245041311 11.489535933761314 0 0 0
12 1 3.0707746592346137 6.333525257484755 3.462544410397415 0 0 0
13 1 11.961604313262265 9.266355840402792 3.6175812741834226 0 0 0
14 1 5.581983401140589 9.1022675324666 3.090765867421805 0 0 0
15 1 11.366178957866092 9.422007844605902 10.14526558382928 0 0 0
16 1 10.271348168006696 5.081730421060836 5.340646632701673 0 0 0
17 1 3.1384035141952618 3.474183193764532 12.05842185045071 0 0 -1
18 1 0.14832524461655325 4.085540671833813 4.526480877559619 0 0 0
19 1 9.620181606203886 9.740030673946617 1.6752710663611454 0 0 0
20 1 8.368072972292884 6.84846242443193 10.264257444321757 0 0 0
21 1 9.241558301521842 6.223957290695287 2.0650088609723305 0 0 0
22 1 0.04159521434785352 2.8904186653284767 8.1399553736878 0 0 0
23 1 4.204624400306937 5.372213286103925 8.897545277544198 0 0 0
24 1 6.677100764072897 11.2776888862663 4.3833721204838945 0 0 0
25 1 6.098622085655259 8.160047783958415 5.78465739772808 0 0 0
26 1 10.9094225701188 0.7249121066591115 8.860327033884907 0 0 0
27 1 9.633471268594885 11.747772742579247 4.764223135383286 0 0 0
28 1 6.531556611491441 4.4944710969844355 10.390716769425126 0 0 0
29 1 2.074312216285041 5.467848917293393 5.892977414442225 0 0 0
30 1 11.318782214250852 7.243755323863263 6.482788805289789 0 0 0
31 1 6.141512440367208 5.540730370821657 6.940017659449396 0 0 0
32 1 3.92148067592517 1.5803357465119419 10.104405911303731 0 0 0
33 1 2.8902863788531556 9.306652030626303 2.9786873746700473 0 0 0
34 1 1.5898174597827044 5.239782128395934 10.648263280914698 0 0 0
35 1 6.797844146146829 7.188489232738435 1.3174048086107322 0 0 0
36 1 11.166546273683482 4.98890087769589 12.138563788818747 0 0 0
37 1 2.6845002848662487 3.587842558762345 7.790483659922656 0 0 0
38 1 6.407584853648868 2.267010262515411 8.837773622869424 0 0 0
39 1 0.8270829137050142 11.827705728820023 6.276285619251305 0 -1 0
40 1 10.23906240219185 1.2064710280694946 2.5863698624518516 0 0 0
41 1 8.317519866100374 3.9382340149032964 0.002166017190997102 0 0 1
42 1 1.6806850893165346 7.478786877227666 0.7200296321208233 0 0 0
43 1 8.868544163290148 4.548902857566585 8.161550863423725 0 0 0
44 1 12.16444140766532 12.010763355006265 11.444215631117679 0 -1 -1
45 1 5.868229790326223 3.00570212531092 3.015144456956083 0 0 0
46 1 9.11316565101348 9.939689295062612 8.614090163238231 0 0 0
47 1 2.79597966145084 10.097455708595357 5.56336630808767 0 0 0
48 1 8.576224564620173 1.7696148932033182 6.330131042042871 0 1 0
49 1 6.174155902092171 9.962551519392372 7.934859162071369 0 0 0
50 1 6.989880305310749 11.861101391316717 12.433559913297316 0 0 0
51 1 3.70310425235901 1.6222395083051793 6.616711052154519 0 0 0
52 1 1.9000977167047644 10.084281182316095 12.190152184015409 0 0 -1
53 1 4.973175119981238 11.775127333613888 6.389412102405283 0 0 0
54 1 12.247681633693803 3.087228589948697 1.6128092650206158 0 0 0
55 1 1.8348576347569474 11.839609293053936 8.722620688190547 0 0 0
56 1 4.648354735717658 5.162784091028392 1.6305528505356737 0 0 0
57 1 10.495740523777956 7.614513053706184 11.993360994005807 0 0 0
58 1 11.302229521696308 5.3466597399698115 9.128271432184107 0 0 0
59 1 3.6993623151994077 7.316625441781627 11.567199801373654 0 0 0
60 1 1.0401520194773224 8.127741253044812 9.512558039857987 0 0 0
61 1 8.2483173567482 0.13242775447945931 9.443511191156635 0 1 0
62 1 3.0461295300021853 12.29376301036076 2.319995949137591 0 -1 0
63 1 8.564678101870747 3.5206954204884067 3.3386478590469215 0 0 0
64 1 1.9139289393723204 7.7835147852867195 7.068610004063226 0 0 0
65 2 0.8002169945963615 1.8225810226773953 0.9880273475270029 1 0 0
66 2 8.202366941759655 8.378188224096265 5.336545398629983 0 0 0
67 2 0.10037881583208923 6.166420713999485 3.192148055290764 0 0 0
68 2 2.511978060672231 1.5699560910825359 5.260496947754353 0 0 0
69 2 4.412184825513305 0.29550850525759015 11.273872610773076 0 1 0
70 2 5.701823738863413 2.5629547679319447 4.652660305564115 0 1 0
71 2 3.3825514638194325 9.335680470251633 9.970936693140287 0 0 0
72 2 5.947945658796159 0.08973265639700574 1.5018295350751698 0 1 0
73 2 8.73731186424142 11.859736054937278 0.5359843977927947 0 0 0
74 2 11.894921755558265 10.670595885847913 6.645687008936763 -1 -1 0
75 2 6.534248845909391 8.264742566904 11.08373678769857 0 0 0
76 2 2.994907901051443 5.836626698443477 4.3100242833727425 0 0 0
77 2 11.322307907072167 9.64387545708206 3.0153640041315457 0 0 0
78 2 4.595330513697895 9.081540252891058 2.964027648701063 0 0 0
79 2 11.644359673923226 10.23238792148165 10.620549606321875 0 0 0
80 2 9.680197858139664 4.710064569477751 6.005066929194155 0 0 0
81 2 2.441124558180414 3.898357480360777 11.575247070810628 0 0 0
82 2 11.645449265252068 4.287149846575199 4.683473694319491 -1 0 0
83 2 8.712395650596884 9.762665723066297 1.9941661729975346 0 0 0
84 2 8.942130514495773 6.57773855277964 9.53610803482511 0 0 0
85 2 10.100467108396181 6.706273928719196 2.2287732673855505 0 0 0
86 2 1.0159224215955098 2.924670131495792 8.27929642296122 0 0 0
87 2 4.659297354993729 5.051427548270784 9.687156166718765 0 0 0
88 2 6.550329939594525 11.921153880580704 3.6501515862664653 0 0 0
89 2 5.96934703340879 7.141417924378623 5.917415987497019 0 0 0
90 2 11.52907225276146 1.4905375707346908 8.549168830430164 0 0 0
91 2 8.751324288288195 11.328271154369462 4.721132172806407 0 0 0
92 2 6.718482964562977 4.1994829685162935 11.29895527820372 0 0 0
93 2 2.0569181401055716 4.764665398684576 6.660515421819308 0 0 0
94 2 12.104182227938567 7.681318654086538 6.761030948344974 0 0 0
95 2 6.01446696023323 4.708174193567747 6.553571413857079 0 0 0
96 2 3.876608784811935 2.1890284196683765 10.839360049923442 0 0 0
97 2 2.379901565534132 8.657262324967885 2.538513914423916 0 0 0
98 2 1.0432456867895283 5.894790067135452 11.045796352908468 0 0 0
99 2 7.683542047616244 6.765762740427654 1.4290270493515085 0 0 0
100 2 11.631422700452152 4.473337711737814 0.36528525189828964 0 0 1
101 2 3.0387015255940524 2.867434973779146 7.305346752292162 0 0 0
102 2 6.29440894975953 3.13531813713552 9.322400291844739 0 0 0
103 2 1.3039324518645223 11.982669989471615 7.158997184426419 0 -1 0
104 2 10.272611782159846 0.5161080375495374 3.2855622817181884 0 0 0
105 2 9.167936050650594 4.051024362322487 12.072570017312188 0 0 0
106 2 0.8733684791052357 7.154546911995921 1.2199231033234963 0 0 0
107 2 9.728998624978518 4.744182388363021 8.50584640723575 0 0 0
108 2 11.245308520766274 12.028917268608623 11.854363466473327 0 0 -1
109 2 5.856303344268898 2.1242471665572307 2.5808030371547606 0 0 1
110 2 9.046387600076832 10.873737061650504 8.977988921230548 0 0 0
111 2 1.9928448973221486 10.651343068497546 5.545954342825142 0 0 0
112 2 8.340914591131387 1.5215374434404245 7.24377721364434 0 1 0
113 2 6.118896127174288 9.27245387090631 7.204248896048181 0 0 0
114 2 7.352174938356196 12.17604154519933 11.586993576178592 0 0 0
115 2 3.9337348775903607 0.7189415469206792 6.906761232722826 0 0 0
116 2 1.2225127973491616 10.689992843286287 11.974628162679572 0 0 -1
117 2 5.558579048180295 11.941091959756506 5.6535613401231215 0 0 0
118 2 0.33349955048361907 3.5343929533280694 2.3059216531169096 1 0 0
119 2 2.4927545306568604 11.108280357301913 8.871326504078482 0 0 0
120 2 5.404716897058405 5.766597484799225 1.5774738336055538 0 0 0
121 2 10.751216632108111 8.220496612979705 11.214765636862833 0 0 0
122 2 11.383383633080566 5.31102661558079 10.072006121231665 0 0 0
123 2 4.219907250215604 6.5967648556512 11.915741802853987 0 0 0
124 2 1.4887961830715022 7.828081870357128 8.764174523950944 0 0 0
125 2 7.557517680212368 0.7274949810832272 9.246296629890468 0 1 0
126 2 2.9721787705515488 11.338491449559367 2.2556611014877426 0 -1 0
127 2 8.788170091020104 3.6648378787460016 4.22695966895725 0 0 0
128 2 2.192378474913679 6.967906398900125 6.606002168620041 0 0 0
129 2 2.007922861981255 1.8754737173817015 12.435844582101682 1 0 -1
130 2 8.842549803077025 7.423462566643211 4.180962910661195 0 0 0
131 2 12.0510045282127 7.6278380950814135 2.9684812587546054 0 0 0
132 2 2.090803892918104 1.2995280272689687 3.891939385366144 0 0 0
133 2 4.294234009477123 11.35740555200856 10.707675868345584 0 0 0
134 2 6.724671365082409 2.4009349070097405 5.797786728464041 0 1 0
135 2 4.61870884692153 9.593499034391904 8.97193577212016 0 0 0
136 2 4.817199601686203 0.289999095695963 2.607647091670589 0 1 0
137 2 9.888358457707477 0.27002308782358725 1.110044552381429 0 1 0
138 2 10.50104545817419 10.221442452583998 7.343288157452432 0 -1 0
139 2 5.07431749378956 8.619506096143171 11.467477264924687 0 0 0
140 2 3.158232201453512 7.249056471247727 3.6820083992155936 0 0 0
141 2 11.953797413202796 9.635287366646404 4.515625417866503 0 0 0
142 2 5.91973133634064 8.542166421994862 2.3675053680624503 0 0 0
143 2 12.272097533911596 8.990608771962814 9.936338261395527 0 0 0
144 2 10.736303800142013 5.807225335092253 5.7869836766879965 0 0 0
145 2 3.436448555807588 4.016660979625879 0.325194123803957 0 0 0
146 2 0.20479432976833534 3.1665713016910213 4.837475817589485 0 0 0
147 2 9.821101178623913 10.671276006303385 1.2542875577971555 0 0 0
148 2 9.140176685312035 7.066789296456174 10.89311725851817 0 0 0
149 2 9.285680266547056 5.4276996512171864 2.5990011785117573 0 0 0
150 2 12.13110466966377 3.6627275764727996 8.566568013166782 -1 0 0
151 2 4.87835433797998 5.283955372362237 8.192985430267196 0 0 0
152 2 6.4467661911510845 10.416680716671296 4.006388789566559 0 0 0
153 2 5.718194045227261 8.33626835161646 4.862101500656648 0 0 0
154 2 11.423895018052821 0.19077342682206905 9.45695624658129 0 0 0
155 2 10.17080701218586 11.04193311737372 5.244388487121328 0 0 0
156 2 7.111390589217885 5.257978120076412 10.326403420261435 0 0 0
157 2 1.2176140075753223 5.246406027941619 5.40305679270552 0 0 0
158 2 10.735373566840023 7.996014810374322 6.161433526729338 0 0 0
159 2 6.9038282660421215 5.550772778614333 7.528949134006428 0 0 0
160 2 3.5218871011180557 2.0407656325221595 9.379574817887422 0 0 0
161 2 2.557868094927312 9.243487941936463 3.8904452829504845 0 0 0
162 2 2.223779744525662 5.672330095347033 10.040682918690708 0 0 0
163 2 6.7754117127034075 7.6392674678870565 0.49917001749082773 0 0 0
164 2 11.10913316791283 5.9140333191544325 12.432716434090466 0 0 0
165 2 3.429345854985249 4.16838490083951 8.135015258984316 0 0 0
166 2 5.4897773001397745 2.10981926815556 8.54952633041382 0 0 0
167 2 0.8452399351201757 0.20085027384387136 5.774257743155164 0 0 0
168 2 9.54923999422574 1.7809354961765318 2.94498864186681 0 0 0
169 2 8.344681187338344 4.418980592838097 0.8230332005989341 0 0 1
170 2 1.4136287455393537 8.418812194199255 0.5324520213419361 0 0 0
171 2 8.935923931764533 3.601866805629955 8.1116754349043 0 0 0
172 2 0.2987356257964779 0.10753153779841078 11.999120126231723 1 0 -1
173 2 5.372452947652089 3.6488932219033328 2.4464981868428226 0 0 0
174 2 9.747124556539116 9.611671176183147 9.304071913769295 0 0 0
175 2 3.5034581967554748 10.623151814574221 5.890696843812316 0 0 0
176 2 9.146736669282099 1.049012364989804 6.060340201856132 0 1 0
177 2 7.007469257609954 9.749073330949821 8.299605037838234 0 0 0
178 2 6.120720176638008 11.431800355718124 12.144578721154728 0 0 0
179 2 4.54185349895931 2.0670965539460022 6.2992942987100555 0 0 0
180 2 2.749790390165361 10.52300965889233 12.02163165564994 0 0 -1
181 2 5.4571066950706255 11.322454105128278 7.109220331311971 0 0 0
182 2 11.582097525617396 2.4535777951456987 2.072796100587151 0 0 0
183 2 1.8938874811468098 12.322312060591099 9.568221944121237 0 0 0
184 2 4.114719212315479 5.658651856957395 2.333620709072177 0 0 0
185 2 10.165733829683042 8.29218847645665 0.240738286033404 0 0 0
186 2 11.505386278649004 6.241666408695587 8.812342294744013 0 0 0
187 2 2.91840786874554 7.33007694802268 12.201009252318343 0 0 0
188 2 1.6861350174797332 8.132123595974809 10.257687538341314 0 0 0
189 2 9.113800614913618 0.5600936642553619 9.521703321882706 0 1 0
190 2 2.5956661704587414 0.26035718006561503 1.5395063016785888 0 0 0
191 2 7.598827040403547 3.518075893697804 3.2151374001402124 0 0 0
192 2 2.360349134793062 8.556132918302477 6.694122162896395 0 0 0

Velocities

1 4.646515064496053 2.4354755762686535 -0.09445253035455484
2 1.381760802597868 -3.437081061974582 -0.7981599404352019
3 -2.298170934007587 1.4082362892021587 0.8915900078642811
4 -2.401547674640544 -3.125123854881591 3.240797003923624
5 -6.590419609100058 -6.839624310568708 0.47770932286415047
6 0.04977827163088497 2.460941295307956 -4.452279083229547
7 1.6800790542156767 3.072869483060775 2.2065181117531187
8 -0.5884081920239976 8.128718595583733 1.7564300955558187
9 0.886471009733649 1.8068728758504036 1.164343315980615
10 -2.431691178428314 -4.138911291866636 -1.6983467705226571
11 3.16771835990219 -0.5483214824146148 2.8348468010960977
12 -1.2370817088006671 -1.0364448047335213 -6.9469294542327615
13 0.004965639066940919 1.7920266710626311 -0.21751938937307047
14 -0.7735559932899756 5.023951191057827 -4.96562728534161
15 -0.6935915683374145 -3.506341665455583 -3.7792098154710856
16 0.030107637605628915 -3.8880342954755998 0.3279474853636283
17 6.789132591684697 0.4648389695745056 0.8232119417666482
18 1.0787003521430674 -3.198304244155793 -3.9663870466897304
19 1.8314783109057928 2.625465831041665 -1.5991487638907405
20 -5.080290817923324 7.100638948805509 6.713237881953973
21 -3.3623141201802667 -4.353276107487347 8.332233717865742
22 -5.318081317989178 0.6548576750857928 1.5889343614608322
23 -1.8415591496574102 2.745154134153613 -2.3910876377403
24 2.7409792772571167 1.1806252230565928 4.814173982571012
25 3.8330940884123854 0.9869697232107222 0.9051562371913283
26 -5.9741054742875 0.19369310907845128 6.503180665736271
27 -0.8820901063451125 3.7127932140021227 0.7253686502381469
28 -4.66414792304754 -5.2225693237501325 -4.964703644852357
29 0.5341680760003427 -0.2777937128781418 -3.114055410018212
30 -2.0556411557990626 -6.041769823398979 -1.2031359327172824
31 -0.489909886131636 -11.821780093074086 1.0925605775278067
32 -4.039952711897976 -1.2305239692076921 -0.5035291336835694
33 4.08962017154692 0.7835936326066327 -2.5589443569618338
34 2.5113294159972517 -2.5791585959116583 4.433279008173566
35 -4.250028255705689 6.888143320043076 5.286256727896515
36 -2.1170188404835324 -2.4296209265237314 0.19846871490813967
37 0.7103842930376533 8.13473554668594 2.585380284384591
38 -3.2768952564472493 4.320435544992269 0.6840829334427321
39 -3.8702264670718085 5.781196128277782 7.229117509656035
40 1.9894019341392746 0.9052965899497759 -2.0484626147963407
41 2.7539422886194274 6.848306573688879 -1.431220704327303
42 2.431477537528324 1.3999716253339836 -2.7512236519191045
43 -1.427275998680455 -3.2253424301350493 1.376889762008138
44 -3.642845495136176 -1.0341871678462216 4.1415412949587065
45 4.788425184619167 1.8591715579154853 -5.6729802443102075
46 -2.288853748162456 2.3958987591459344 -4.31427844204867
47 -4.00796459660227 6.381437335072533 -2.6599649863802384
48 -0.15469189761080043 2.7449052448221067 -2.210960484367479
49 -9.955388734062794 -5.106758322331864 -3.3475018841555135
50 4.108761996365145 -4.212640460391786 -5.33714635439742
51 2.391771187442098 -1.2595228153851337 1.9051296437316732
52 -5.577968165110385 -1.1695042165635459 -0.40214982641541963
53 3.0771013426959466 2.4484665804021075 5.746289129101028
54 0.5587957279727815 -5.27513559513676 7.1063271559926475
55 3.131566832870994 6.048769143339017 0.24653345682999134
56 -1.6856889233536374 -5.273654149792008 3.462447671473252
57 3.9300502091923977 -1.1163637459362628 -7.545805314366166
58 2.818934417473825 0.7785537396773402 -5.811274235061793
59 0.5201373335849395 -1.217796744837513 -6.346370292127869
60 0.3462471525803307 -2.7386499637284567 0.7789145842468862
61 7.190836679238326 -0.7613792410265426 1.2473623932820468
62 -1.841047749925139 -0.357542169396632 2.1492767842879346
63 -0.5647916971526981 4.651843703959571 3.351048532836268
64 3.7885695040262397 -3.0813153508748248 -1.346419780371514
65 8.471805294845637 14.310276906334218 8.611195002431
66 6.591943135456605 -21.88882977322009 -1.780663875250185
67 -0.07848838164858757 6.517649784818277 9.02507382057458
68 -18.52185141039638 5.145921442112752 -3.0435223756951952
69 3.5881835734360212 -2.7124326941165253 -9.320842423487854
70 -3.8255055170675067 -17.94571944243867 -4.092049824537784
71 -2.8785299893875678 -24.604560026784526 -9.28806362961783
72 -16.579627755280807 1.5702697109065757 1.933574513235462
73 0.6158315033539598 8.009425202162253 -16.051903320483436
74 11.021218043889487 -10.058871583799236 3.8519523488754013
75 -4.688558538752169 -6.442300890297117 -4.881119846781306
76 12.558409834993881 -19.503124705591148 15.510276365946412
77 13.904559428287788 10.132255081266909 20.94599053362652
78 6.270097885967529 -6.115036664877769 9.775383827361997
79 -14.946941818287701 -15.762198636261624 2.3982499794486296
80 -17.19343264183136 -1.1429775687811177 -2.4183503115272695
81 14.381992250663469 -11.278057698577058 -4.40254053577854
82 6.899428307007526 0.7878576045542985 11.369266278222275
83 10.632661736637552 -11.989195084869516 -1.346939582286158
84 0.5909565897668794 12.11591947053163 19.32717814493075
85 2.8193893935104315 10.75295484296589 -3.235401755438181
86 -5.881190429220699 -3.7035135839505577 12.868710520617801
87 -16.497743890444262 3.0361360299990197 6.425745342674771
88 -0.8499740260886419 15.893514687690526 26.903688005894516
89 7.205170675978544 -6.522344228661419 -16.291926001441915
90 10.020091567244975 6.009133920716157 5.776674061889245
91 13.994665397769754 -15.881781251361604 3.875473935552127
92 -8.899009527591636 3.6941980063855326 -9.371771703485651
93 -12.89750874424422 -9.374365280185113 1.025957476142391
94 -8.690521538066049 3.947704495638228 -0.3062854620840461
95 -8.975556371373603 -11.920640335286903 18.64851546079007
96 5.150191934103352 11.057762844211256 -17.173773398069144
97 -5.371500985704804 -7.879431690277858 -7.1350860897448785
98 -21.239810838682732 -9.534320368125513 13.783255921622688
99 5.244218387289188 0.5043155409850972 13.735567978254757
100 -1.783748576889737 2.7406274598080964 1.580326468412372
101 -4.604874950181601 -3.5065411783141993 5.7776278727663914
102 0.02317507402809338 9.946990377850879 -5.945341718712516
103 -2.8681491949358238 -12.231985223111774 -12.302192509553807
104 3.7020095477832293 -17.233081228447652 13.387242666317631
105 -3.8151753020989103 -6.636457346085354 -11.309197362079273
106 7.958110660331369 -8.570144434330194 18.257593993969238
107 -31.733936811389952 5.658827127299497 -14.038397111821254
108 2.7878754651504023 -5.741477913231619 5.798839804916871
109 8.696541520018087 1.5739015896167436 7.425236450644907
110 -6.86999111754797 -12.111431374010388 -8.49634800397918
111 -2.224887354531449 -21.4674953824476 -0.7034321467307423
112 -2.6946985025973365 3.281553128956577 -1.4059106008796416
113 9.73221230331437 2.309093629768784 -11.39175216473797
114 9.956058346719175 -22.511809434527077 -9.334108892153946
115 27.03238348493798 26.183877469360226 5.724107682836362
116 -4.999972907379308 8.680151458776297 8.718422443829683
117 -2.537617345622528 13.434899098487712 15.749024660558641
118 -1.9312580999096398 -9.946009642291859 0.6890683634343114
119 1.6380099756500224 -8.774910677067739 -9.089699961914352
120 7.753731264415371 -4.392065540945978 -7.368217064307013
121 -6.32518285217087 2.46422368698047 -1.407020215321905
122 -3.5097501419628734 8.613248684260816 5.119746910390502
123 -2.4622648545501997 3.490070347596075 -25.82427891319468
124 11.380369988462181 14.032973005953062 -12.281469058886069
125 0.6695314990744947 6.275047515539713 -16.7815962242956
126 -12.443811687165432 18.88890713733195 -8.79716818924099
127 -29.204001353647307 4.983869796837295 6.514163102536788
128 6.460242603043038 -6.352185568870505 -8.208408040904144
129 30.45322197822511 -13.886606090829256 28.91177910302282
130 14.363235104636198 2.588545193673538 12.537451691917655
131 7.011225363333836 -7.663040491948477 -11.430079817963888
132 5.835146218313598 10.04983042579403 -12.095412084907862
133 19.593006223174072 8.870923682305975 -0.6637239311261101
134 -17.600071683183234 -6.456320336124593 -4.633770502829635
135 8.901833205176159 -25.871981462906472 -8.992478148932038
136 -8.881064736939996 1.618726852015695 -7.390311961523726
137 6.258345286653643 -1.9708758552594412 -8.832637493761828
138 10.240353336969065 7.075405973622284 -8.124747512706175
139 18.89499950974985 12.47504029512001 5.293289839924767
140 26.4327729961479 -7.00768074629997 19.813637087120306
141 -5.630668874071198 12.228024852208227 5.514363510236445
142 -8.037871606567135 -4.139888532809845 5.7481848852703905
143 -3.065174703615382 -0.1325013931692141 -8.82089850495567
144 -0.6189189100481607 3.8506882201865746 -12.917738786039376
145 4.666908230108236 1.5201071571717752 1.5167634659116136
146 2.9360623964644 -8.547944752158424 -24.140400030818707
147 -11.695992581008902 -8.2806824487264 5.404167021862324
148 -7.591182091961356 0.4317841508687137 0.3274120254530763
149 -7.61000660522356 2.4132440186213557 -17.91792567269489
150 1.199784708801193 7.832537152836236 -13.6396179765575
151 5.429222621324213 -3.0831265579372387 -3.871650147859068
152 -2.7565321256007866 4.546693202924447 -9.804664978392584
153 -13.880323488230559 8.79874876865202 2.306065034795397
154 9.136523313733779 -2.1535896635217937 -2.523593183633628
155 -9.980473276823643 -3.0845673841300947 -3.001930473570026
156 -10.988972030029029 -11.721685718213081 -20.240878189487447
157 -13.521379201831436 29.79088805028248 29.007741915632533
158 -14.826824416374864 -14.141637365942204 -21.437890694104805
159 2.0410869264107236 6.7683245283139275 -18.908176797552432
160 8.41448710890315 1.0628540041125025 2.7062360509339376
161 -11.047752698340735 -0.23941124475889142 -24.701108654716563
162 -17.233365058965475 -4.503559240348542 5.427986392901701
163 11.838422298913962 -6.203679322330479 14.757962991880468
164 6.818912044065941 -6.743420893253883 3.5914246834742447
165 5.743254082187859 -5.628147676712164 1.4743706076414353
166 10.68191026812437 -26.94917124630708 0.8377264130417188
167 5.430756911811008 4.13730457866218 9.537720365121993
168 0.49214138683612935 12.123092968004032 -5.111066529962623
169 -3.869538211990213 1.6300396857509956 14.926267422528282
170 26.466482289529512 -21.611900979066846 -2.8149633359161204
171 -7.614143322812193 -5.149057317554277 14.060007530361686
172 9.36521400233337 -9.10615645969404 21.567555579797627
173 4.655470701113376 6.088454532525711 -17.03271600152586
174 -7.282678025194635 5.489961249821037 -11.193980331967653
175 -10.599523512156923 21.41604783157473 19.296256793464686
176 6.150646382332764 19.94362630769131 3.2866790323245345
177 -8.435716856185346 14.393349398040975 8.748620162657044
178 2.6831901709863017 -1.2842354561393479 -0.17319167938515956
179 8.035925037631813 26.10554039253656 12.849860342566975
180 2.581499628795311 15.836527825125069 -1.0668401031704597
181 1.8982273801381595 18.019253585925977 -11.532314361476995
182 -1.3163068079490714 5.758100591854638 -7.731254049012307
183 20.598297655914934 -9.484441705913106 -3.438747521942343
184 -12.430867581869343 26.134376866002455 0.7660870423589259
185 46.188692732505366 -24.179110914201143 -10.993912064090217
186 5.4094012074437305 -1.461934797964542 9.829875849752591
187 20.821356400805044 1.7105395884587575 -3.554678330962745
188 7.8443582899281274 -13.518262686651363 -2.6303800221750393
189 5.551992344550702 -4.056222668779008 -3.522346856539114
190 -0.6995415789662998 7.053775212876964 19.55159376403707
191 2.883004327740386 -1.3718568461497989 2.435177026782399
192 -1.7309244798768384 -9.720974675708575 2.366925576292968
